<?xml version="1.0"?>
<VTKFile type="UnstructuredGrid"  version="0.1"  >
<UnstructuredGrid>
<Piece  NumberOfPoints="4913" NumberOfCells="4096">
<Points>
<DataArray  type="Float64"  NumberOfComponents="3"  format="ascii">0 0 0  0.0625 0 0  0.125 0 0  0.1875 0 0  0.25 0 0  0.3125 0 0  0.375 0 0  0.4375 0 0  0.5 0 0  0.5625 0 0  0.625 0 0  0.6875 0 0  0.75 0 0  0.8125 0 0  0.875 0 0  0.9375 0 0  1 0 0  0 0.0625 0  0.0625 0.0625 0  0.125 0.0625 0  0.1875 0.0625 0  0.25 0.0625 0  0.3125 0.0625 0  0.375 0.0625 0  0.4375 0.0625 0  0.5 0.0625 0  0.5625 0.0625 0  0.625 0.0625 0  0.6875 0.0625 0  0.75 0.0625 0  0.8125 0.0625 0  0.875 0.0625 0  0.9375 0.0625 0  1 0.0625 0  0 0.125 0  0.0625 0.125 0  0.125 0.125 0  0.1875 0.125 0  0.25 0.125 0  0.3125 0.125 0  0.375 0.125 0  0.4375 0.125 0  0.5 0.125 0  0.5625 0.125 0  0.625 0.125 0  0.6875 0.125 0  0.75 0.125 0  0.8125 0.125 0  0.875 0.125 0  0.9375 0.125 0  1 0.125 0  0 0.1875 0  0.0625 0.1875 0  0.125 0.1875 0  0.1875 0.1875 0  0.25 0.1875 0  0.3125 0.1875 0  0.375 0.1875 0  0.4375 0.1875 0  0.5 0.1875 0  0.5625 0.1875 0  0.625 0.1875 0  0.6875 0.1875 0  0.75 0.1875 0  0.8125 0.1875 0  0.875 0.1875 0  0.9375 0.1875 0  1 0.1875 0  0 0.25 0  0.0625 0.25 0  0.125 0.25 0  0.1875 0.25 0  0.25 0.25 0  0.3125 0.25 0  0.375 0.25 0  0.4375 0.25 0  0.5 0.25 0  0.5625 0.25 0  0.625 0.25 0  0.6875 0.25 0  0.75 0.25 0  0.8125 0.25 0  0.875 0.25 0  0.9375 0.25 0  1 0.25 0  0 0.3125 0  0.0625 0.3125 0  0.125 0.3125 0  0.1875 0.3125 0  0.25 0.3125 0  0.3125 0.3125 0  0.375 0.3125 0  0.4375 0.3125 0  0.5 0.3125 0  0.5625 0.3125 0  0.625 0.3125 0  0.6875 0.3125 0  0.75 0.3125 0  0.8125 0.3125 0  0.875 0.3125 0  0.9375 0.3125 0  1 0.3125 0  0 0.375 0  0.0625 0.375 0  0.125 0.375 0  0.1875 0.375 0  0.25 0.375 0  0.3125 0.375 0  0.375 0.375 0  0.4375 0.375 0  0.5 0.375 0  0.5625 0.375 0  0.625 0.375 0  0.6875 0.375 0  0.75 0.375 0  0.8125 0.375 0  0.875 0.375 0  0.9375 0.375 0  1 0.375 0  0 0.4375 0  0.0625 0.4375 0  0.125 0.4375 0  0.1875 0.4375 0  0.25 0.4375 0  0.3125 0.4375 0  0.375 0.4375 0  0.4375 0.4375 0  0.5 0.4375 0  0.5625 0.4375 0  0.625 0.4375 0  0.6875 0.4375 0  0.75 0.4375 0  0.8125 0.4375 0  0.875 0.4375 0  0.9375 0.4375 0  1 0.4375 0  0 0.5 0  0.0625 0.5 0  0.125 0.5 0  0.1875 0.5 0  0.25 0.5 0  0.3125 0.5 0  0.375 0.5 0  0.4375 0.5 0  0.5 0.5 0  0.5625 0.5 0  0.625 0.5 0  0.6875 0.5 0  0.75 0.5 0  0.8125 0.5 0  0.875 0.5 0  0.9375 0.5 0  1 0.5 0  0 0.5625 0  0.0625 0.5625 0  0.125 0.5625 0  0.1875 0.5625 0  0.25 0.5625 0  0.3125 0.5625 0  0.375 0.5625 0  0.4375 0.5625 0  0.5 0.5625 0  0.5625 0.5625 0  0.625 0.5625 0  0.6875 0.5625 0  0.75 0.5625 0  0.8125 0.5625 0  0.875 0.5625 0  0.9375 0.5625 0  1 0.5625 0  0 0.625 0  0.0625 0.625 0  0.125 0.625 0  0.1875 0.625 0  0.25 0.625 0  0.3125 0.625 0  0.375 0.625 0  0.4375 0.625 0  0.5 0.625 0  0.5625 0.625 0  0.625 0.625 0  0.6875 0.625 0  0.75 0.625 0  0.8125 0.625 0  0.875 0.625 0  0.9375 0.625 0  1 0.625 0  0 0.6875 0  0.0625 0.6875 0  0.125 0.6875 0  0.1875 0.6875 0  0.25 0.6875 0  0.3125 0.6875 0  0.375 0.6875 0  0.4375 0.6875 0  0.5 0.6875 0  0.5625 0.6875 0  0.625 0.6875 0  0.6875 0.6875 0  0.75 0.6875 0  0.8125 0.6875 0  0.875 0.6875 0  0.9375 0.6875 0  1 0.6875 0  0 0.75 0  0.0625 0.75 0  0.125 0.75 0  0.1875 0.75 0  0.25 0.75 0  0.3125 0.75 0  0.375 0.75 0  0.4375 0.75 0  0.5 0.75 0  0.5625 0.75 0  0.625 0.75 0  0.6875 0.75 0  0.75 0.75 0  0.8125 0.75 0  0.875 0.75 0  0.9375 0.75 0  1 0.75 0  0 0.8125 0  0.0625 0.8125 0  0.125 0.8125 0  0.1875 0.8125 0  0.25 0.8125 0  0.3125 0.8125 0  0.375 0.8125 0  0.4375 0.8125 0  0.5 0.8125 0  0.5625 0.8125 0  0.625 0.8125 0  0.6875 0.8125 0  0.75 0.8125 0  0.8125 0.8125 0  0.875 0.8125 0  0.9375 0.8125 0  1 0.8125 0  0 0.875 0  0.0625 0.875 0  0.125 0.875 0  0.1875 0.875 0  0.25 0.875 0  0.3125 0.875 0  0.375 0.875 0  0.4375 0.875 0  0.5 0.875 0  0.5625 0.875 0  0.625 0.875 0  0.6875 0.875 0  0.75 0.875 0  0.8125 0.875 0  0.875 0.875 0  0.9375 0.875 0  1 0.875 0  0 0.9375 0  0.0625 0.9375 0  0.125 0.9375 0  0.1875 0.9375 0  0.25 0.9375 0  0.3125 0.9375 0  0.375 0.9375 0  0.4375 0.9375 0  0.5 0.9375 0  0.5625 0.9375 0  0.625 0.9375 0  0.6875 0.9375 0  0.75 0.9375 0  0.8125 0.9375 0  0.875 0.9375 0  0.9375 0.9375 0  1 0.9375 0  0 1 0  0.0625 1 0  0.125 1 0  0.1875 1 0  0.25 1 0  0.3125 1 0  0.375 1 0  0.4375 1 0  0.5 1 0  0.5625 1 0  0.625 1 0  0.6875 1 0  0.75 1 0  0.8125 1 0  0.875 1 0  0.9375 1 0  1 1 0  0 0 0.0625  0.0625 0 0.0625  0.125 0 0.0625  0.1875 0 0.0625  0.25 0 0.0625  0.3125 0 0.0625  0.375 0 0.0625  0.4375 0 0.0625  0.5 0 0.0625  0.5625 0 0.0625  0.625 0 0.0625  0.6875 0 0.0625  0.75 0 0.0625  0.8125 0 0.0625  0.875 0 0.0625  0.9375 0 0.0625  1 0 0.0625  0 0.0625 0.0625  0.0625 0.0625 0.0625  0.125 0.0625 0.0625  0.1875 0.0625 0.0625  0.25 0.0625 0.0625  0.3125 0.0625 0.0625  0.375 0.0625 0.0625  0.4375 0.0625 0.0625  0.5 0.0625 0.0625  0.5625 0.0625 0.0625  0.625 0.0625 0.0625  0.6875 0.0625 0.0625  0.75 0.0625 0.0625  0.8125 0.0625 0.0625  0.875 0.0625 0.0625  0.9375 0.0625 0.0625  1 0.0625 0.0625  0 0.125 0.0625  0.0625 0.125 0.0625  0.125 0.125 0.0625  0.1875 0.125 0.0625  0.25 0.125 0.0625  0.3125 0.125 0.0625  0.375 0.125 0.0625  0.4375 0.125 0.0625  0.5 0.125 0.0625  0.5625 0.125 0.0625  0.625 0.125 0.0625  0.6875 0.125 0.0625  0.75 0.125 0.0625  0.8125 0.125 0.0625  0.875 0.125 0.0625  0.9375 0.125 0.0625  1 0.125 0.0625  0 0.1875 0.0625  0.0625 0.1875 0.0625  0.125 0.1875 0.0625  0.1875 0.1875 0.0625  0.25 0.1875 0.0625  0.3125 0.1875 0.0625  0.375 0.1875 0.0625  0.4375 0.1875 0.0625  0.5 0.1875 0.0625  0.5625 0.1875 0.0625  0.625 0.1875 0.0625  0.6875 0.1875 0.0625  0.75 0.1875 0.0625  0.8125 0.1875 0.0625  0.875 0.1875 0.0625  0.9375 0.1875 0.0625  1 0.1875 0.0625  0 0.25 0.0625  0.0625 0.25 0.0625  0.125 0.25 0.0625  0.1875 0.25 0.0625  0.25 0.25 0.0625  0.3125 0.25 0.0625  0.375 0.25 0.0625  0.4375 0.25 0.0625  0.5 0.25 0.0625  0.5625 0.25 0.0625  0.625 0.25 0.0625  0.6875 0.25 0.0625  0.75 0.25 0.0625  0.8125 0.25 0.0625  0.875 0.25 0.0625  0.9375 0.25 0.0625  1 0.25 0.0625  0 0.3125 0.0625  0.0625 0.3125 0.0625  0.125 0.3125 0.0625  0.1875 0.3125 0.0625  0.25 0.3125 0.0625  0.3125 0.3125 0.0625  0.375 0.3125 0.0625  0.4375 0.3125 0.0625  0.5 0.3125 0.0625  0.5625 0.3125 0.0625  0.625 0.3125 0.0625  0.6875 0.3125 0.0625  0.75 0.3125 0.0625  0.8125 0.3125 0.0625  0.875 0.3125 0.0625  0.9375 0.3125 0.0625  1 0.3125 0.0625  0 0.375 0.0625  0.0625 0.375 0.0625  0.125 0.375 0.0625  0.1875 0.375 0.0625  0.25 0.375 0.0625  0.3125 0.375 0.0625  0.375 0.375 0.0625  0.4375 0.375 0.0625  0.5 0.375 0.0625  0.5625 0.375 0.0625  0.625 0.375 0.0625  0.6875 0.375 0.0625  0.75 0.375 0.0625  0.8125 0.375 0.0625  0.875 0.375 0.0625  0.9375 0.375 0.0625  1 0.375 0.0625  0 0.4375 0.0625  0.0625 0.4375 0.0625  0.125 0.4375 0.0625  0.1875 0.4375 0.0625  0.25 0.4375 0.0625  0.3125 0.4375 0.0625  0.375 0.4375 0.0625  0.4375 0.4375 0.0625  0.5 0.4375 0.0625  0.5625 0.4375 0.0625  0.625 0.4375 0.0625  0.6875 0.4375 0.0625  0.75 0.4375 0.0625  0.8125 0.4375 0.0625  0.875 0.4375 0.0625  0.9375 0.4375 0.0625  1 0.4375 0.0625  0 0.5 0.0625  0.0625 0.5 0.0625  0.125 0.5 0.0625  0.1875 0.5 0.0625  0.25 0.5 0.0625  0.3125 0.5 0.0625  0.375 0.5 0.0625  0.4375 0.5 0.0625  0.5 0.5 0.0625  0.5625 0.5 0.0625  0.625 0.5 0.0625  0.6875 0.5 0.0625  0.75 0.5 0.0625  0.8125 0.5 0.0625  0.875 0.5 0.0625  0.9375 0.5 0.0625  1 0.5 0.0625  0 0.5625 0.0625  0.0625 0.5625 0.0625  0.125 0.5625 0.0625  0.1875 0.5625 0.0625  0.25 0.5625 0.0625  0.3125 0.5625 0.0625  0.375 0.5625 0.0625  0.4375 0.5625 0.0625  0.5 0.5625 0.0625  0.5625 0.5625 0.0625  0.625 0.5625 0.0625  0.6875 0.5625 0.0625  0.75 0.5625 0.0625  0.8125 0.5625 0.0625  0.875 0.5625 0.0625  0.9375 0.5625 0.0625  1 0.5625 0.0625  0 0.625 0.0625  0.0625 0.625 0.0625  0.125 0.625 0.0625  0.1875 0.625 0.0625  0.25 0.625 0.0625  0.3125 0.625 0.0625  0.375 0.625 0.0625  0.4375 0.625 0.0625  0.5 0.625 0.0625  0.5625 0.625 0.0625  0.625 0.625 0.0625  0.6875 0.625 0.0625  0.75 0.625 0.0625  0.8125 0.625 0.0625  0.875 0.625 0.0625  0.9375 0.625 0.0625  1 0.625 0.0625  0 0.6875 0.0625  0.0625 0.6875 0.0625  0.125 0.6875 0.0625  0.1875 0.6875 0.0625  0.25 0.6875 0.0625  0.3125 0.6875 0.0625  0.375 0.6875 0.0625  0.4375 0.6875 0.0625  0.5 0.6875 0.0625  0.5625 0.6875 0.0625  0.625 0.6875 0.0625  0.6875 0.6875 0.0625  0.75 0.6875 0.0625  0.8125 0.6875 0.0625  0.875 0.6875 0.0625  0.9375 0.6875 0.0625  1 0.6875 0.0625  0 0.75 0.0625  0.0625 0.75 0.0625  0.125 0.75 0.0625  0.1875 0.75 0.0625  0.25 0.75 0.0625  0.3125 0.75 0.0625  0.375 0.75 0.0625  0.4375 0.75 0.0625  0.5 0.75 0.0625  0.5625 0.75 0.0625  0.625 0.75 0.0625  0.6875 0.75 0.0625  0.75 0.75 0.0625  0.8125 0.75 0.0625  0.875 0.75 0.0625  0.9375 0.75 0.0625  1 0.75 0.0625  0 0.8125 0.0625  0.0625 0.8125 0.0625  0.125 0.8125 0.0625  0.1875 0.8125 0.0625  0.25 0.8125 0.0625  0.3125 0.8125 0.0625  0.375 0.8125 0.0625  0.4375 0.8125 0.0625  0.5 0.8125 0.0625  0.5625 0.8125 0.0625  0.625 0.8125 0.0625  0.6875 0.8125 0.0625  0.75 0.8125 0.0625  0.8125 0.8125 0.0625  0.875 0.8125 0.0625  0.9375 0.8125 0.0625  1 0.8125 0.0625  0 0.875 0.0625  0.0625 0.875 0.0625  0.125 0.875 0.0625  0.1875 0.875 0.0625  0.25 0.875 0.0625  0.3125 0.875 0.0625  0.375 0.875 0.0625  0.4375 0.875 0.0625  0.5 0.875 0.0625  0.5625 0.875 0.0625  0.625 0.875 0.0625  0.6875 0.875 0.0625  0.75 0.875 0.0625  0.8125 0.875 0.0625  0.875 0.875 0.0625  0.9375 0.875 0.0625  1 0.875 0.0625  0 0.9375 0.0625  0.0625 0.9375 0.0625  0.125 0.9375 0.0625  0.1875 0.9375 0.0625  0.25 0.9375 0.0625  0.3125 0.9375 0.0625  0.375 0.9375 0.0625  0.4375 0.9375 0.0625  0.5 0.9375 0.0625  0.5625 0.9375 0.0625  0.625 0.9375 0.0625  0.6875 0.9375 0.0625  0.75 0.9375 0.0625  0.8125 0.9375 0.0625  0.875 0.9375 0.0625  0.9375 0.9375 0.0625  1 0.9375 0.0625  0 1 0.0625  0.0625 1 0.0625  0.125 1 0.0625  0.1875 1 0.0625  0.25 1 0.0625  0.3125 1 0.0625  0.375 1 0.0625  0.4375 1 0.0625  0.5 1 0.0625  0.5625 1 0.0625  0.625 1 0.0625  0.6875 1 0.0625  0.75 1 0.0625 
[...]
<PointData  Scalars="f_31-1"> 
<DataArray  type="Float64"  Name="f_31-1"  format="ascii">-3.6929146478105529e-03  -2.3197803987306240e-02  -4.2059862376830529e-02  -6.1084733028047802e-02  -8.0235836580209344e-02  -9.9658458002757008e-02  -1.1971501425407276e-01  -1.4049742396124726e-01  -1.6229787376381188e-01  -1.8489513669135238e-01  -2.0850519147212485e-01  -2.3176150375129131e-01  -2.5300413614728329e-01  -2.6815381788787351e-01  -2.6731522892742754e-01  -2.2482872553563998e-01  -1.3198226300552096e-01  -1.4939019593743247e-03  -3.7689662851240327e-02  -6.1132991516992918e-02  -8.5836114489602447e-02  -1.1013896833619123e-01  -1.3534500395030302e-01  -1.6132784425358018e-01  -1.8800711752773155e-01  -2.1587368851231420e-01  -2.4370733116390947e-01  -2.7177322438981272e-01  -2.9761721508576017e-01  -3.2074645001850371e-01  -3.3310451372878591e-01  -3.3720614095848794e-01  -2.8039465185733853e-01  -3.1285151094833580e-01  -1.7887800106370665e-03  -6.0124699529285376e-02  -9.6281844782390519e-02  -1.3350003640151351e-01  -1.7029902633944483e-01  -2.0825091933087672e-01  -2.4709156200212265e-01  -2.8741697242986730e-01  -3.2823353221559959e-01  -3.6970307112129075e-01  -4.1042668609142668e-01  -4.4826872263171241e-01  -4.8307791539037176e-01  -5.0092465235152872e-01  -5.1296005041572135e-01  -4.3265507214687288e-01  -5.5265472630358148e-01  -1.3451361724603488e-03  -7.7206981970830910e-02  -1.2240346469610594e-01  -1.6869737787854469e-01  -2.1400631691482733e-01  -2.6053276061969072e-01  -3.0858128380343908e-01  -3.5760356007376093e-01  -4.0786698399774735e-01  -4.5816548954383224e-01  -5.0795995810009575e-01  -5.5446548389718187e-01  -5.9666490968512098e-01  -6.1987030708564417e-01  -6.4284014179369475e-01  -5.5400630454161093e-01  -7.7336315666468280e-01  2.1087366262245098e-04  -9.1653949341622215e-02  -1.4513963506626931e-01  -1.9923044124857917e-01  -2.5181877675953407e-01  -3.0605522507565996e-01  -3.6136210166784799e-01  -4.1830545129360952e-01  -4.7616278037886328e-01  -5.3446630747596358e-01  -5.9189367704991669e-01  -6.4537304082464131e-01  -6.9625664140380472e-01  -7.2640063174479319e-01  -7.6368259712317443e-01  -6.6776248122563941e-01  -9.7162156763900143e-01  1.1146972502719715e-03  -1.0291373773319173e-01  -1.6263395141659029e-01  -2.2263571356065878e-01  -2.8098203695539536e-01  -3.4062417452603638e-01  -4.0181321471275061e-01  -4.6432906316060391e-01  -5.2824146345038692e-01  -5.9247976473502162e-01  -6.5564985969033474e-01  -7.1577850847790003e-01  -7.7348306362230068e-01  -8.1117085846304404e-01  -8.6012700388063901e-01  -7.6126075456516451e-01  -1.1365678773468271e+00  2.8572325581443102e-03  -1.1093680063405241e-01  -1.7521034208332167e-01  -2.3965132430886588e-01  -3.0190807845804546e-01  -3.6577604569327982e-01  -4.3078398926896755e-01  -4.9773247933240122e-01  -5.6567433625146091e-01  -6.3405876002359707e-01  -7.0201752285330832e-01  -7.6689371486011149e-01  -8.3071215272850074e-01  -8.7351491116948110e-01  -9.3290373130062665e-01  -8.3176829869272551e-01  -1.2596527030147147e+00  3.9969568486317632e-03  -1.1568180602858456e-01  -1.8278990499194317e-01  -2.4977304447758369e-01  -3.1462426127160092e-01  -3.8062375845789442e-01  -4.4843396601141933e-01  -5.1756292665947656e-01  -5.8799096092577696e-01  -6.5896640431270037e-01  -7.2986191935777256e-01  -7.9797396002842957e-01  -8.6505679752243092e-01  -9.1219144399379870e-01  -9.7770511405124227e-01  -8.7515129386415369e-01  -1.3358160748362635e+00  4.2431196300716251e-03  -1.1739788763393944e-01  -1.8526253322145564e-01  -2.5329402375784277e-01  -3.1865515342147499e-01  -3.8590039922063341e-01  -4.5412497896694082e-01  -5.2418347713729363e-01  -5.9544037533836447e-01  -6.6738452610689525e-01  -7.3937014283780700e-01  -8.0816339790980551e-01  -8.7680618442312352e-01  -9.2524475693990527e-01  -9.9261049754927777e-01  -8.9018475889370696e-01  -1.3615551844653646e+00  3.9473965077514613e-03  -1.1578748375012433e-01  -1.8283860891323178e-01  -2.4970143137698786e-01  -3.1469641340764176e-01  -3.8067301528659181e-01  -4.4832938606581207e-01  -5.1744772889630075e-01  -5.8798156578152005e-01  -6.5907133604902446e-01  -7.2999167433442125e-01  -7.9773229251985323e-01  -8.6524649951055210e-01  -9.1197293122156819e-01  -9.7770565296394818e-01  -8.7523443118297795e-01  -1.3358078039720984e+00  2.8280259967271909e-03  -1.1122772769801591e-01  -1.7509913353059020e-01  -2.3975037536644342e-01  -3.0183967914523591e-01  -3.6577206158157138e-01  -4.3079811812887259e-01  -4.9763508997491757e-01  -5.6554080461494738e-01  -6.3410394966836903e-01  -7.0199400037310800e-01  -7.6699335235287669e-01  -8.3026663118175226e-01  -8.7382636989902218e-01  -9.3277885327006271e-01  -8.3158215842220495e-01  -1.2597405479055994e+00  1.0459330938750106e-03  -1.0308900829678314e-01  -1.6268529915790503e-01  -2.2253266463591678e-01  -2.8102543233156818e-01  -3.4057394969616611e-01  -4.0182937064169361e-01  -4.6427970068438446e-01  -5.2826744168002016e-01  -5.9211073255054603e-01  -6.5589902420196933e-01  -7.1555971290730347e-01  -7.7350554673209437e-01  -8.1102348668329372e-01  -8.6015717276118808e-01  -7.6103043533731951e-01  -1.1365376379198728e+00  2.0078396365401455e-04  -9.1910029174674529e-02  -1.4493628964228819e-01  -1.9931111410608277e-01  -2.5175107919113543e-01  -3.0611128688636519e-01  -3.6121400316940383e-01  -4.1839590808229588e-01  -4.7601328682650373e-01  -5.3445143856761612e-01  -5.9169595878441550e-01  -6.4548088997583219e-01  -6.9585333597028187e-01  -7.2667978943317713e-01  -7.6338578874667296e-01  -6.6776387525882908e-01  -9.7153025183036601e-01  -1.1432546305154008e-03  -7.7109798682190839e-02  -1.2252188539948897e-01  -1.6855345938796107e-01  -2.1419884493939498e-01  -2.6033219517273781e-01  -3.0856267590164493e-01  -3.5741251321646905e-01  -4.0783732490859609e-01  -4.5810855560297015e-01  -5.0792691504566978e-01  -5.5397615772790954e-01  -5.9622708483407461e-01  -6.2009087913033745e-01  -6.4343898068104433e-01  -5.5359028506778141e-01  -7.7292804415277039e-01  -1.8323151475574948e-03  -6.0237064740881231e-02  -9.6163182343768430e-02  -1.3380739609290118e-01  -1.7000047084091943e-01  -2.0828419207354248e-01  -2.4693374279474836e-01  -2.8727389701178091e-01  -3.2820412555212808e-01  -3.6965269260175071e-01  -4.1052476978620950e-01  -4.4838174539393716e-01  -4.8243729498892624e-01  -5.0109238274994694e-01  -5.1327788948421138e-01  -4.3282953467190038e-01  -5.5165173603916828e-01  -1.1966141466911316e-03  -3.7374334891723419e-02  -6.1283185280413488e-02  -8.5557277989170843e-02  -1.1015876577539332e-01  -1.3503714065782974e-01  -1.6108854164936395e-01  -1.8779587883744664e-01  -2.1543436105194336e-01  -2.4358086796584391e-01  -2.7166125223921095e-01  -2.9783914110425419e-01  -3.2079578906570649e-01  -3.3283416887564221e-01  -3.3723115486512989e-01  -2.8040595086121745e-01  -3.1289754711683809e-01  -2.7777069765796297e-03  -2.2975529809939551e-02  -4.2167601153560233e-02  -6.1111171885657706e-02  -8.0416692243837337e-02  -9.9998451349860712e-02  -1.2018392125713054e-01  -1.4112275486190409e-01  -1.6300125478231800e-01  -1.8574998634576972e-01  -2.0916318954247379e-01  -2.3263717058541694e-01  -2.5362616732721982e-01  -2.6903892682664243e-01  -2.6770603551196270e-01  -2.2504476260943038e-01  -1.3384308644880041e-01  1.3930990307211642e-02  -4.6932856656534475e-02  -1.3244976160869540e-01  -2.1673788010132999e-01  -3.0402489530219623e-01  -3.9417774058555949e-01  -4.8922721196691432e-01  -5.9075750477916833e-01  -7.0040746903713769e-01  -8.2028965386109121e-01  -9.5060655407980588e-01  -1.0929456870339911e+00  -1.2434307938472589e+00  -1.3968724763607918e+00  -1.5408521112609983e+00  -1.6430343113615842e+00  -1.6995107499298459e+00  3.0709458882793698e-02  -3.9554022976175988e-02  -1.0780017514270185e-01  -1.7850070905841220e-01  -2.5099928214490386e-01  -3.2670312785427441e-01  -4.0666387728857928e-01  -4.9218531770104823e-01  -5.8465194038490564e-01  -6.8510196025317771e-01  -7.9459837653755583e-01  -9.1327233078668335e-01  -1.0408367250292110e+00  -1.1745000560798178e+00  -1.3167593380457225e+00  -1.4745076130769397e+00  -1.8184667835225665e+00  5.2151334451855720e-02  -3.8591458828954261e-02  -1.1513019892127400e-01  -1.8852134763404937e-01  -2.6282839836710548e-01  -3.3987808509391548e-01  -4.2101458023951716e-01  -5.0752446016877362e-01  -6.0055160845543487e-01  -7.0112958063204156e-01  -8.1049395314253514e-01  -9.2926650819890610e-01  -1.0594410310648776e+00  -1.2023095775539743e+00  -1.3797826305489400e+00  -1.6315971540131866e+00  -2.3237414477645211e+00  6.9808487551431278e-02  -3.8415226141895659e-02  -1.2507050207546921e-01  -2.0492795302894934e-01  -2.8410465694126952e-01  -3.6542649725381943e-01  -4.5069130292112319e-01  -5.4118294132815070e-01  -6.3824045405358631e-01  -7.4326716564999595e-01  -8.5755706769474460e-01  -9.8344447765867560e-01  -1.1253498150434966e+00  -1.2905546813051354e+00  -1.5169141867345286e+00  -1.8770459955759664e+00  -2.9062046042112559e+00  8.5107075038151958e-02  -3.8494456436589226e-02  -1.3494817397155401e-01  -2.2173844302233353e-01  -3.0651510341932547e-01  -3.9290100901891872e-01  -4.8293842615326865e-01  -5.7838983128993582e-01  -6.8064963142879642e-01  -7.9144736683352224e-01  -9.1313773853971181e-01  -1.0488398485527175e+00  -1.2069608854895177e+00  -1.3982968025352245e+00  -1.6775186551705572e+00  -2.1410131457440746e+00  -3.4707208203871565e+00  9.7235908550236769e-02  -3.8475625807551865e-02  -1.4296986744021717e-01  -2.3569918514080099e-01  -3.2541489258886713e-01  -4.1621214366403680e-01  -5.1063557917136260e-01  -6.1046202379369341e-01  -7.1762219014611761e-01  -8.3403976816650938e-01  -9.6292090369033534e-01  -1.1089303487752729e+00  -1.2825429993210216e+00  -1.4996858763955909e+00  -1.8259734549975843e+00  -2.3783306791246348e+00  -3.9573931026019356e+00  1.0609310043250236e-01  -3.8434169807564741e-02  -1.4887527422359020e-01  -2.4612551145387490e-01  -3.3959642230529735e-01  -4.3390411985883154e-01  -5.3166324534444198e-01  -6.3506337057879247e-01  -7.4604847817804543e-01  -8.6720310657965327e-01  -1.0021736688674088e+00  -1.1566354234267502e+00  -1.3434809281376174e+00  -1.5811201053176718e+00  -1.9443566548369340e+00  -2.5639974966636672e+00  -4.3291985329401950e+00  1.1163356578353703e-01  -3.8363576485999973e-02  -1.5246910872140601e-01  -2.5246990147034853e-01  -3.4834036516731642e-01  -4.4476804566341710e-01  -5.4470368157746052e-01  -6.5028180090287868e-01  -7.6381494929349592e-01  -8.8795691405515531e-01  -1.0269593582942158e+00  -1.1870722980969812e+00  -1.3824455868633376e+00  -1.6333710885077721e+00  -2.0199658458259533e+00  -2.6814448274934328e+00  -4.5615886477525125e+00  1.1343432993695379e-01  -3.8364673429223783e-02  -1.5365691191796396e-01  -2.5464022665145652e-01  -3.5125810865763263e-01  -4.4847650313206172e-01  -5.4908830900388184e-01  -6.5546542852266432e-01  -7.6982483309967031e-01  -8.9506237591579063e-01  -1.0354302956769703e+00  -1.1975255110044805e+00  -1.3958392825186774e+00  -1.6514064009221450e+00  -2.0458631874694189e+00  -2.7216009278913433e+00  -4.6405319411170627e+00  1.1164928934726008e-01  -3.8380985621125324e-02  -1.5248597505145225e-01  -2.5246855790196843e-01  -3.4834446492094800e-01  -4.4476842838022040e-01  -5.4468863927585387e-01  -6.5026250582765088e-01  -7.6380718167382677e-01  -8.8794386708120954e-01  -1.0269606124010688e+00  -1.1870277360250332e+00  -1.3824353838125167e+00  -1.6333534304163384e+00  -2.0199004789454889e+00  -2.6814344094256541e+00  -4.5614840722424583e+00  1.0617300170520830e-01  -3.8493301355248942e-02  -1.4887944612695697e-01  -2.4613329698588510e-01  -3.3959778832234383e-01  -4.3390203572928954e-01  -5.3163812945701716e-01  -6.3504862820497843e-01  -7.4602078896458124e-01  -8.6717696480568307e-01  -1.0021282735996808e+00  -1.1566219208599020e+00  -1.3433953664142477e+00  -1.5810563325396105e+00  -1.9443222728582517e+00  -2.5639180906484991e+00  -4.3290517161089728e+00  9.7238187266510068e-02  -3.8501816281903668e-02  -1.4298762322136677e-01  -2.3568815343194782e-01  -3.2541711326396794e-01  -4.1618674553741913e-01  -5.1063453740197617e-01  -6.1044158488171496e-01  -7.1758224226625378e-01  -8.3401111305823372e-01  -9.6293662379374123e-01  -1.1088054628461010e+00  -1.2825117625447886e+00  -1.4995726988323259e+00  -1.8259030383243116e+00  -2.3782532512882910e+00  -3.9571671419485832e+00  8.5178092643593828e-02  -3.8491843113976937e-02  -1.3493921300114728e-01  -2.2175321106512494e-01  -3.0648516245388779e-01  -3.9290103639850132e-01  -4.8292160636498910e-01  -5.7836410911573388e-01  -6.8061080143203712e-01  -7.9142294089945997e-01  -9.1305464701753947e-01  -1.0487827135879375e+00  -1.2067013262899995e+00  -1.3982406460657024e+00  -1.6774150558261840e+00  -2.1408009892570550e+00  -3.4707160590416408e+00  6.9877311960717892e-02  -3.8424471633681796e-02  -1.2509534606559408e-01  -2.0488013954940518e-01  -2.8411256976760269e-01  -3.6540738189772870e-01  -4.5065147055818638e-01  -5.4115101866750215e-01  -6.3824756576310859e-01  -7.4319676113382893e-01  -8.5758658660405973e-01  -9.8331095989921979e-01  -1.1253581961953436e+00  -1.2903628342862796e+00  -1.5168445853135886e+00  -1.8770352241794033e+00  -2.9057828640546779e+00  5.2181458020907831e-02  -3.8554439420805997e-02  -1.1501873112647587e-01  -1.8853524734904739e-01  -2.6280722038445481e-01  -3.3983717549498577e-01  -4.2096787584295364e-01  -5.0745337471611440e-01  -6.0046386442412003e-01  -7.0108690404320273e-01  -8.1039887733957860e-01  -9.2910038948182649e-01  -1.0593060632878024e+00  -1.2021485934862506e+00  -1.3795371727086072e+00  -1.6308966888847387e+00  -2.3250929602448105e+00  3.0563467576647376e-02  -3.9455483513856061e-02  -1.0792599477568292e-01  -1.7856595546477227e-01  -2.5104410709356401e-01  -3.2673113864354064e-01  -4.0665951028201086e-01  -4.9219854950040426e-01  -5.8460545901764049e-01  -6.8510681230199144e-01  -7.9459855876134022e-01  -9.1331995173313696e-01  -1.0408423783602290e+00  -1.1745571764818434e+00  -1.3165167519028369e+00  -1.4734805917445202e+00  -1.8169800419130926e+00  1.3973133555667816e-02  -4.7169107658351868e-02  -1.3247109151511721e-01  -2.1672239721825431e-01  -3.0390698381662828e-01  -3.9398496817914702e-01  -4.8891263135065388e-01  -5.9030084824520368e-01  -6.9992968925493704e-01  -8.1943452765658520e-01  -9.5001999251807112e-01  -1.0918140572860284e+00  -1.2428732555432154e+00  -1.3962286049404089e+00  -1.5402828342160304e+00  -1.6424869019839352e+00  -1.6939970714576593e+00  2.8656196581078000e-02  -2.9147608832591272e-02  -1.4084465491521539e-01  -2.5268785827415530e-01  -3.7030161906073833e-01  -4.9291901915020758e-01  -6.2338820581051346e-01  -7.6433500534074916e-01  -9.1920255863888911e-01  -1.0902742470517128e+00  -1.2821506400172515e+00  -1.4947647495503360e+00  -1.7309237819295167e+00  -1.9841633793311428e+00  -2.2433417984410804e+00  -2.4560288435050963e+00  -2.5272292770152345e+00  4.7254107802016693e-02  -3.9588321656765707e-02  -1.3640043356007622e-01  -2.4172109826610189e-01  -3.5132773068468498e-01  -4.6686154025452598e-01  -5.8995160575754080e-01  -7.2299065721655387e-01  -8.6833275584976854e-01  -1.0288142947311449e+00  -1.2061297698982527e+00  -1.4027835072994392e+00  -1.6179533844598313e+00  -1.8517252236112789e+00  -2.0958786924625978e+00  -2.3546782787815950e+00  -2.5697062990752131e+00  7.7212331300528250e-02  -2.9707797907703490e-02  -1.3365032976773411e-01  -2.3804433848618398e-01  -3.4569909235660640e-01  -4.5841525972337949e-01  -5.7836722552436859e-01  -7.0775504844541237e-01  -8.4901219747910539e-01  -1.0046359968056593e+00  -1.1772334548423791e+00  -1.3697220829327128e+00  -1.5856143364792989e+00  -1.8323884641974977e+00  -2.1225851442133337e+00  -2.5037309613420917e+00  -2.9654247574804762e+00  1.0156930997559424e-01  -2.0040866346572688e-02  -1.3314880194211082e-01  -2.4253686756321305e-01  -3.5270910722306903e-01  -4.6697333384528039e-01  -5.8796548356943390e-01  -7.1826901614506045e-01  -8.6056734159226345e-01  -1.0176348217559452e+00  -1.1935542362872678e+00  -1.3928817080156679e+00  -1.6241945903206270e+00  -1.9043229682233191e+00  -2.2639408087810673e+00  -2.7914407140626101e+00  -3.5016104972266615e+00  1.2296222675840808e-01  -1.1194623795572919e-02  -1.3346889098107112e-01  -2.4881421060186509e-01  -3.6309991218655424e-01  -4.8046180059076787e-01  -6.0421639814501271e-01  -7.3728013669882531e-01  -8.8275999522743009e-01  -1.0445536604596477e+00  -1.2271999448762734e+00  -1.4390767602025496e+00  -1.6919585904443981e+00  -2.0133132470944397e+00  -2.4474460431180174e+00  -3.1173845767977828e+00  -4.0514187069407654e+00  1.3992137058857090e-01  -4.1820459981229598e-03  -1.3408897760590852e-01  -2.5499409694764996e-01  -3.7346948759220638e-01  -4.9429417683016269e-01  -6.2121502892738978e-01  -7.5761748689331998e-01  -9.0720616807800780e-01  -1.0743597192597576e+00  -1.2655839262140778e+00  -1.4906094739959594e+00  -1.7664878399246113e+00  -2.1268192061874767e+00  -2.6291206418171997e+00  -3.4211362147260500e+00  -4.5403891900042224e+00  1.5240619702266245e-01  9.8198272864553080e-04  -1.3465384198007280e-01  -2.5988593024664391e-01  -3.8177636666190184e-01  -5.0551486903037135e-01  -6.3518576585619424e-01  -7.7461735361556450e-01  -9.2777102173978032e-01  -1.0999961283076947e+00  -1.2984745389066588e+00  -1.5354623135164851e+00  -1.8300801092250618e+00  -2.2225443273560037e+00  -2.7778252524647544e+00  -3.6627310214891526e+00  -4.9201459025883869e+00  1.6000130809127408e-01  4.1260335975187752e-03  -1.3504478215393709e-01  -2.6298973629592204e-01  -3.8708730267865504e-01  -5.1272222068202267e-01  -6.4428937345603610e-01  -7.8567443057853492e-01  -9.4140218752679383e-01  -1.1169259981846598e+00  -1.3205857279425071e+00  -1.5652357891310540e+00  -1.8725613155603884e+00  -2.2854634255250863e+00  -2.8743671669904804e+00  -3.8170964702261481e+00  -5.1597161986699653e+00  1.6255181133562213e-01  5.1818777493162068e-03  -1.3518019100314041e-01  -2.6405308100335328e-01  -3.8889429486207611e-01  -5.1522343645066659e-01  -6.4738492679465898e-01  -7.8955344433263797e-01  -9.4605407542882181e-01  -1.1229164251997577e+00  -1.3282181352104092e+00  -1.5757395524868418e+00  -1.8873444779577457e+00  -2.3073492415231116e+00  -2.9077520545832853e+00  -3.8701040680157694e+00  -5.2415103111790051e+00  1.5997983626391332e-01  4.1168099643705738e-03  -1.3504956964149992e-01  -2.6299090007211112e-01  -3.8709504982561310e-01  -5.1271562515736802e-01  -6.4429259908080383e-01  -7.8565206830674628e-01  -9.4138763422691674e-01  -1.1169242714839527e+00  -1.3205443890931778e+00  -1.5652559638059262e+00  -1.8725181709460377e+00  -2.2854683812974836e+00  -2.8743538797987878e+00  -3.8171077609476600e+00  -5.1597751012300677e+00  1.5236993690780914e-01  9.8403081559142805e-04  -1.3466690767395320e-01  -2.5989539974090903e-01  -3.8176628227638437e-01  -5.0552901480037649e-01  -6.3516328666456334e-01  -7.7460308350069640e-01  -9.2774415881967842e-01  -1.0999555829060625e+00  -1.2984850591289179e+00  -1.5353549076295849e+00  -1.8300942710572110e+00  -2.2225024866530010e+00  -2.7778000838098200e+00  -3.6627281868045580e+00  -4.9202713990956788e+00  1.3985686761471916e-01  -4.1903713751672272e-03  -1.3410478728143838e-01  -2.5497747757280947e-01  -3.7350409738009760e-01  -4.9425985273855805e-01  -6.2122397480997649e-01  -7.5759077043022405e-01  -9.0716190917851225e-01  -1.0743495964072254e+00  -1.2654690588548676e+00  -1.4906304644216095e+00  -1.7663240135011999e+00  -2.1268629361465892e+00  -2.6290331344919147e+00  -3.4210880927930223e+00  -4.5405886859243090e+00  1.2288833208651910e-01  -1.1205699758620685e-02  -1.3346750713245542e-01  -2.4885605166023067e-01  -3.6305855335757137e-01  -4.8049282129887549e-01  -6.0417820306222780e-01  -7.3725796588250136e-01  -8.8276077031486422e-01  -1.0444446823523281e+00  -1.2272482092479928e+00  -1.4389111817601361e+00  -1.6919480562224625e+00  -2.0131354986527432e+00  -2.4474032065943878e+00  -3.1174149202930046e+00  -4.05