<?xml version="1.0"?>
<VTKFile type="UnstructuredGrid"  version="0.1"  >
<UnstructuredGrid>
<Piece  NumberOfPoints="4913" NumberOfCells="4096">
<Points>
<DataArray  type="Float64"  NumberOfComponents="3"  format="ascii">0 0 0  0.0625 0 0  0.125 0 0  0.1875 0 0  0.25 0 0  0.3125 0 0  0.375 0 0  0.4375 0 0  0.5 0 0  0.5625 0 0  0.625 0 0  0.6875 0 0  0.75 0 0  0.8125 0 0  0.875 0 0  0.9375 0 0  1 0 0  0 0.0625 0  0.0625 0.0625 0  0.125 0.0625 0  0.1875 0.0625 0  0.25 0.0625 0  0.3125 0.0625 0  0.375 0.0625 0  0.4375 0.0625 0  0.5 0.0625 0  0.5625 0.0625 0  0.625 0.0625 0  0.6875 0.0625 0  0.75 0.0625 0  0.8125 0.0625 0  0.875 0.0625 0  0.9375 0.0625 0  1 0.0625 0  0 0.125 0  0.0625 0.125 0  0.125 0.125 0  0.1875 0.125 0  0.25 0.125 0  0.3125 0.125 0  0.375 0.125 0  0.4375 0.125 0  0.5 0.125 0  0.5625 0.125 0  0.625 0.125 0  0.6875 0.125 0  0.75 0.125 0  0.8125 0.125 0  0.875 0.125 0  0.9375 0.125 0  1 0.125 0  0 0.1875 0  0.0625 0.1875 0  0.125 0.1875 0  0.1875 0.1875 0  0.25 0.1875 0  0.3125 0.1875 0  0.375 0.1875 0  0.4375 0.1875 0  0.5 0.1875 0  0.5625 0.1875 0  0.625 0.1875 0  0.6875 0.1875 0  0.75 0.1875 0  0.8125 0.1875 0  0.875 0.1875 0  0.9375 0.1875 0  1 0.1875 0  0 0.25 0  0.0625 0.25 0  0.125 0.25 0  0.1875 0.25 0  0.25 0.25 0  0.3125 0.25 0  0.375 0.25 0  0.4375 0.25 0  0.5 0.25 0  0.5625 0.25 0  0.625 0.25 0  0.6875 0.25 0  0.75 0.25 0  0.8125 0.25 0  0.875 0.25 0  0.9375 0.25 0  1 0.25 0  0 0.3125 0  0.0625 0.3125 0  0.125 0.3125 0  0.1875 0.3125 0  0.25 0.3125 0  0.3125 0.3125 0  0.375 0.3125 0  0.4375 0.3125 0  0.5 0.3125 0  0.5625 0.3125 0  0.625 0.3125 0  0.6875 0.3125 0  0.75 0.3125 0  0.8125 0.3125 0  0.875 0.3125 0  0.9375 0.3125 0  1 0.3125 0  0 0.375 0  0.0625 0.375 0  0.125 0.375 0  0.1875 0.375 0  0.25 0.375 0  0.3125 0.375 0  0.375 0.375 0  0.4375 0.375 0  0.5 0.375 0  0.5625 0.375 0  0.625 0.375 0  0.6875 0.375 0  0.75 0.375 0  0.8125 0.375 0  0.875 0.375 0  0.9375 0.375 0  1 0.375 0  0 0.4375 0  0.0625 0.4375 0  0.125 0.4375 0  0.1875 0.4375 0  0.25 0.4375 0  0.3125 0.4375 0  0.375 0.4375 0  0.4375 0.4375 0  0.5 0.4375 0  0.5625 0.4375 0  0.625 0.4375 0  0.6875 0.4375 0  0.75 0.4375 0  0.8125 0.4375 0  0.875 0.4375 0  0.9375 0.4375 0  1 0.4375 0  0 0.5 0  0.0625 0.5 0  0.125 0.5 0  0.1875 0.5 0  0.25 0.5 0  0.3125 0.5 0  0.375 0.5 0  0.4375 0.5 0  0.5 0.5 0  0.5625 0.5 0  0.625 0.5 0  0.6875 0.5 0  0.75 0.5 0  0.8125 0.5 0  0.875 0.5 0  0.9375 0.5 0  1 0.5 0  0 0.5625 0  0.0625 0.5625 0  0.125 0.5625 0  0.1875 0.5625 0  0.25 0.5625 0  0.3125 0.5625 0  0.375 0.5625 0  0.4375 0.5625 0  0.5 0.5625 0  0.5625 0.5625 0  0.625 0.5625 0  0.6875 0.5625 0  0.75 0.5625 0  0.8125 0.5625 0  0.875 0.5625 0  0.9375 0.5625 0  1 0.5625 0  0 0.625 0  0.0625 0.625 0  0.125 0.625 0  0.1875 0.625 0  0.25 0.625 0  0.3125 0.625 0  0.375 0.625 0  0.4375 0.625 0  0.5 0.625 0  0.5625 0.625 0  0.625 0.625 0  0.6875 0.625 0  0.75 0.625 0  0.8125 0.625 0  0.875 0.625 0  0.9375 0.625 0  1 0.625 0  0 0.6875 0  0.0625 0.6875 0  0.125 0.6875 0  0.1875 0.6875 0  0.25 0.6875 0  0.3125 0.6875 0  0.375 0.6875 0  0.4375 0.6875 0  0.5 0.6875 0  0.5625 0.6875 0  0.625 0.6875 0  0.6875 0.6875 0  0.75 0.6875 0  0.8125 0.6875 0  0.875 0.6875 0  0.9375 0.6875 0  1 0.6875 0  0 0.75 0  0.0625 0.75 0  0.125 0.75 0  0.1875 0.75 0  0.25 0.75 0  0.3125 0.75 0  0.375 0.75 0  0.4375 0.75 0  0.5 0.75 0  0.5625 0.75 0  0.625 0.75 0  0.6875 0.75 0  0.75 0.75 0  0.8125 0.75 0  0.875 0.75 0  0.9375 0.75 0  1 0.75 0  0 0.8125 0  0.0625 0.8125 0  0.125 0.8125 0  0.1875 0.8125 0  0.25 0.8125 0  0.3125 0.8125 0  0.375 0.8125 0  0.4375 0.8125 0  0.5 0.8125 0  0.5625 0.8125 0  0.625 0.8125 0  0.6875 0.8125 0  0.75 0.8125 0  0.8125 0.8125 0  0.875 0.8125 0  0.9375 0.8125 0  1 0.8125 0  0 0.875 0  0.0625 0.875 0  0.125 0.875 0  0.1875 0.875 0  0.25 0.875 0  0.3125 0.875 0  0.375 0.875 0  0.4375 0.875 0  0.5 0.875 0  0.5625 0.875 0  0.625 0.875 0  0.6875 0.875 0  0.75 0.875 0  0.8125 0.875 0  0.875 0.875 0  0.9375 0.875 0  1 0.875 0  0 0.9375 0  0.0625 0.9375 0  0.125 0.9375 0  0.1875 0.9375 0  0.25 0.9375 0  0.3125 0.9375 0  0.375 0.9375 0  0.4375 0.9375 0  0.5 0.9375 0  0.5625 0.9375 0  0.625 0.9375 0  0.6875 0.9375 0  0.75 0.9375 0  0.8125 0.9375 0  0.875 0.9375 0  0.9375 0.9375 0  1 0.9375 0  0 1 0  0.0625 1 0  0.125 1 0  0.1875 1 0  0.25 1 0  0.3125 1 0  0.375 1 0  0.4375 1 0  0.5 1 0  0.5625 1 0  0.625 1 0  0.6875 1 0  0.75 1 0  0.8125 1 0  0.875 1 0  0.9375 1 0  1 1 0  0 0 0.0625  0.0625 0 0.0625  0.125 0 0.0625  0.1875 0 0.0625  0.25 0 0.0625  0.3125 0 0.0625  0.375 0 0.0625  0.4375 0 0.0625  0.5 0 0.0625  0.5625 0 0.0625  0.625 0 0.0625  0.6875 0 0.0625  0.75 0 0.0625  0.8125 0 0.0625  0.875 0 0.0625  0.9375 0 0.0625  1 0 0.0625  0 0.0625 0.0625  0.0625 0.0625 0.0625  0.125 0.0625 0.0625  0.1875 0.0625 0.0625  0.25 0.0625 0.0625  0.3125 0.0625 0.0625  0.375 0.0625 0.0625  0.4375 0.0625 0.0625  0.5 0.0625 0.0625  0.5625 0.0625 0.0625  0.625 0.0625 0.0625  0.6875 0.0625 0.0625  0.75 0.0625 0.0625  0.8125 0.0625 0.0625  0.875 0.0625 0.0625  0.9375 0.0625 0.0625  1 0.0625 0.0625  0 0.125 0.0625  0.0625 0.125 0.0625  0.125 0.125 0.0625  0.1875 0.125 0.0625  0.25 0.125 0.0625  0.3125 0.125 0.0625  0.375 0.125 0.0625  0.4375 0.125 0.0625  0.5 0.125 0.0625  0.5625 0.125 0.0625  0.625 0.125 0.0625  0.6875 0.125 0.0625  0.75 0.125 0.0625  0.8125 0.125 0.0625  0.875 0.125 0.0625  0.9375 0.125 0.0625  1 0.125 0.0625  0 0.1875 0.0625  0.0625 0.1875 0.0625  0.125 0.1875 0.0625  0.1875 0.1875 0.0625  0.25 0.1875 0.0625  0.3125 0.1875 0.0625  0.375 0.1875 0.0625  0.4375 0.1875 0.0625  0.5 0.1875 0.0625  0.5625 0.1875 0.0625  0.625 0.1875 0.0625  0.6875 0.1875 0.0625  0.75 0.1875 0.0625  0.8125 0.1875 0.0625  0.875 0.1875 0.0625  0.9375 0.1875 0.0625  1 0.1875 0.0625  0 0.25 0.0625  0.0625 0.25 0.0625  0.125 0.25 0.0625  0.1875 0.25 0.0625  0.25 0.25 0.0625  0.3125 0.25 0.0625  0.375 0.25 0.0625  0.4375 0.25 0.0625  0.5 0.25 0.0625  0.5625 0.25 0.0625  0.625 0.25 0.0625  0.6875 0.25 0.0625  0.75 0.25 0.0625  0.8125 0.25 0.0625  0.875 0.25 0.0625  0.9375 0.25 0.0625  1 0.25 0.0625  0 0.3125 0.0625  0.0625 0.3125 0.0625  0.125 0.3125 0.0625  0.1875 0.3125 0.0625  0.25 0.3125 0.0625  0.3125 0.3125 0.0625  0.375 0.3125 0.0625  0.4375 0.3125 0.0625  0.5 0.3125 0.0625  0.5625 0.3125 0.0625  0.625 0.3125 0.0625  0.6875 0.3125 0.0625  0.75 0.3125 0.0625  0.8125 0.3125 0.0625  0.875 0.3125 0.0625  0.9375 0.3125 0.0625  1 0.3125 0.0625  0 0.375 0.0625  0.0625 0.375 0.0625  0.125 0.375 0.0625  0.1875 0.375 0.0625  0.25 0.375 0.0625  0.3125 0.375 0.0625  0.375 0.375 0.0625  0.4375 0.375 0.0625  0.5 0.375 0.0625  0.5625 0.375 0.0625  0.625 0.375 0.0625  0.6875 0.375 0.0625  0.75 0.375 0.0625  0.8125 0.375 0.0625  0.875 0.375 0.0625  0.9375 0.375 0.0625  1 0.375 0.0625  0 0.4375 0.0625  0.0625 0.4375 0.0625  0.125 0.4375 0.0625  0.1875 0.4375 0.0625  0.25 0.4375 0.0625  0.3125 0.4375 0.0625  0.375 0.4375 0.0625  0.4375 0.4375 0.0625  0.5 0.4375 0.0625  0.5625 0.4375 0.0625  0.625 0.4375 0.0625  0.6875 0.4375 0.0625  0.75 0.4375 0.0625  0.8125 0.4375 0.0625  0.875 0.4375 0.0625  0.9375 0.4375 0.0625  1 0.4375 0.0625  0 0.5 0.0625  0.0625 0.5 0.0625  0.125 0.5 0.0625  0.1875 0.5 0.0625  0.25 0.5 0.0625  0.3125 0.5 0.0625  0.375 0.5 0.0625  0.4375 0.5 0.0625  0.5 0.5 0.0625  0.5625 0.5 0.0625  0.625 0.5 0.0625  0.6875 0.5 0.0625  0.75 0.5 0.0625  0.8125 0.5 0.0625  0.875 0.5 0.0625  0.9375 0.5 0.0625  1 0.5 0.0625  0 0.5625 0.0625  0.0625 0.5625 0.0625  0.125 0.5625 0.0625  0.1875 0.5625 0.0625  0.25 0.5625 0.0625  0.3125 0.5625 0.0625  0.375 0.5625 0.0625  0.4375 0.5625 0.0625  0.5 0.5625 0.0625  0.5625 0.5625 0.0625  0.625 0.5625 0.0625  0.6875 0.5625 0.0625  0.75 0.5625 0.0625  0.8125 0.5625 0.0625  0.875 0.5625 0.0625  0.9375 0.5625 0.0625  1 0.5625 0.0625  0 0.625 0.0625  0.0625 0.625 0.0625  0.125 0.625 0.0625  0.1875 0.625 0.0625  0.25 0.625 0.0625  0.3125 0.625 0.0625  0.375 0.625 0.0625  0.4375 0.625 0.0625  0.5 0.625 0.0625  0.5625 0.625 0.0625  0.625 0.625 0.0625  0.6875 0.625 0.0625  0.75 0.625 0.0625  0.8125 0.625 0.0625  0.875 0.625 0.0625  0.9375 0.625 0.0625  1 0.625 0.0625  0 0.6875 0.0625  0.0625 0.6875 0.0625  0.125 0.6875 0.0625  0.1875 0.6875 0.0625  0.25 0.6875 0.0625  0.3125 0.6875 0.0625  0.375 0.6875 0.0625  0.4375 0.6875 0.0625  0.5 0.6875 0.0625  0.5625 0.6875 0.0625  0.625 0.6875 0.0625  0.6875 0.6875 0.0625  0.75 0.6875 0.0625  0.8125 0.6875 0.0625  0.875 0.6875 0.0625  0.9375 0.6875 0.0625  1 0.6875 0.0625  0 0.75 0.0625  0.0625 0.75 0.0625  0.125 0.75 0.0625  0.1875 0.75 0.0625  0.25 0.75 0.0625  0.3125 0.75 0.0625  0.375 0.75 0.0625  0.4375 0.75 0.0625  0.5 0.75 0.0625  0.5625 0.75 0.0625  0.625 0.75 0.0625  0.6875 0.75 0.0625  0.75 0.75 0.0625  0.8125 0.75 0.0625  0.875 0.75 0.0625  0.9375 0.75 0.0625  1 0.75 0.0625  0 0.8125 0.0625  0.0625 0.8125 0.0625  0.125 0.8125 0.0625  0.1875 0.8125 0.0625  0.25 0.8125 0.0625  0.3125 0.8125 0.0625  0.375 0.8125 0.0625  0.4375 0.8125 0.0625  0.5 0.8125 0.0625  0.5625 0.8125 0.0625  0.625 0.8125 0.0625  0.6875 0.8125 0.0625  0.75 0.8125 0.0625  0.8125 0.8125 0.0625  0.875 0.8125 0.0625  0.9375 0.8125 0.0625  1 0.8125 0.0625  0 0.875 0.0625  0.0625 0.875 0.0625  0.125 0.875 0.0625  0.1875 0.875 0.0625  0.25 0.875 0.0625  0.3125 0.875 0.0625  0.375 0.875 0.0625  0.4375 0.875 0.0625  0.5 0.875 0.0625  0.5625 0.875 0.0625  0.625 0.875 0.0625  0.6875 0.875 0.0625  0.75 0.875 0.0625  0.8125 0.875 0.0625  0.875 0.875 0.0625  0.9375 0.875 0.0625  1 0.875 0.0625  0 0.9375 0.0625  0.0625 0.9375 0.0625  0.125 0.9375 0.0625  0.1875 0.9375 0.0625  0.25 0.9375 0.0625  0.3125 0.9375 0.0625  0.375 0.9375 0.0625  0.4375 0.9375 0.0625  0.5 0.9375 0.0625  0.5625 0.9375 0.0625  0.625 0.9375 0.0625  0.6875 0.9375 0.0625  0.75 0.9375 0.0625  0.8125 0.9375 0.0625  0.875 0.9375 0.0625  0.9375 0.9375 0.0625  1 0.9375 0.0625  0 1 0.0625  0.0625 1 0.0625  0.125 1 0.0625  0.1875 1 0.0625  0.25 1 0.0625  0.3125 1 0.0625  0.375 1 0.0625  0.4375 1 0.0625  0.5 1 0.0625  0.5625 1 0.0625  0.625 1 0.0625  0.6875 1 0.0625  0.75 1 0.0625 
[...]
<PointData  Vectors="f_31-0"> 
<DataArray  type="Float64"  Name="f_31-0"  NumberOfComponents="3" format="ascii">0.0000000000000000e+00 0.0000000000000000e+00 0.0000000000000000e+00  0.0000000000000000e+00 0.0000000000000000e+00 0.0000000000000000e+00  0.0000000000000000e+00 0.0000000000000000e+00 0.0000000000000000e+00  0.0000000000000000e+00 0.0000000000000000e+00 0.0000000000000000e+00  0.0000000000000000e+00 0.0000000000000000e+00 0.0000000000000000e+00  0.0000000000000000e+00 0.0000000000000000e+00 0.0000000000000000e+00  0.0000000000000000e+00 0.0000000000000000e+00 0.0000000000000000e+00  0.0000000000000000e+00 0.0000000000000000e+00 0.0000000000000000e+00  0.0000000000000000e+00 0.0000000000000000e+00 0.0000000000000000e+00  0.0000000000000000e+00 0.0000000000000000e+00 0.0000000000000000e+00  0.0000000000000000e+00 0.0000000000000000e+00 0.0000000000000000e+00  0.0000000000000000e+00 0.0000000000000000e+00 0.0000000000000000e+00  0.0000000000000000e+00 0.0000000000000000e+00 0.0000000000000000e+00  0.0000000000000000e+00 0.0000000000000000e+00 0.0000000000000000e+00  0.0000000000000000e+00 0.0000000000000000e+00 0.0000000000000000e+00  0.0000000000000000e+00 0.0000000000000000e+00 0.0000000000000000e+00  0.0000000000000000e+00 0.0000000000000000e+00 0.0000000000000000e+00  -7.4257414134651867e-02 -2.0197145762139280e-04 -2.4488756633756475e-02  -7.5415777567981415e-02 -5.3988842685561832e-04 -2.7533866451329703e-02  -7.7776445691489449e-02 -1.0844516441954055e-03 -3.3930318047469411e-02  -8.1097626174526413e-02 -1.6545163583235997e-03 -4.2395303913882326e-02  -8.5318815291132569e-02 -2.2279872537528896e-03 -5.2276500646735238e-02  -9.0462714802814551e-02 -2.8110714808725584e-03 -6.3229492884743985e-02  -9.6557800229908786e-02 -3.4131357986561363e-03 -7.5010033726621142e-02  -1.0363237250424395e-01 -4.0496898429650411e-03 -8.7355891398686589e-02  -1.1168360958634384e-01 -4.7322334137623713e-03 -9.9951896299161874e-02  -1.2069410921004502e-01 -5.4734518873274240e-03 -1.1235191507381252e-01  -1.3057858201742215e-01 -6.2760054225007595e-03 -1.2385806312496808e-01  -1.4118194858718597e-01 -7.1223188752382351e-03 -1.3337407993406267e-01  -1.5226336357682069e-01 -7.9496489496861285e-03 -1.3914040301082858e-01  -1.6364487218357535e-01 -8.5819302397381458e-03 -1.3818449951133527e-01  -1.7488421818411029e-01 -8.5996778614532525e-03 -1.2536098418573952e-01  -1.8600475077493855e-01 -6.8322917695757737e-03 -8.9300038550573613e-02  -1.9509032404041962e-01 0.0000000000000000e+00 0.0000000000000000e+00  -1.4388987111611420e-01 -4.5033778444483269e-04 -4.6765861623035136e-02  -1.4594949634888651e-01 -9.7811022208357952e-04 -5.1728337642652888e-02  -1.5028675627231594e-01 -1.9816149848909960e-03 -6.2231812602993118e-02  -1.5656801390226935e-01 -3.1057931174988005e-03 -7.6343708777690408e-02  -1.6466275864485796e-01 -4.2628287476416879e-03 -9.3002672397539538e-02  -1.7457953379404778e-01 -5.4468043827298075e-03 -1.1157999004489365e-01  -1.8635495015489115e-01 -6.6791428140442997e-03 -1.3156790493789389e-01  -2.0003056786250506e-01 -7.9956874831828284e-03 -1.5244296800438506e-01  -2.1560110814423628e-01 -9.4297364224048188e-03 -1.7352605270240232e-01  -2.3305509040493197e-01 -1.1017172237744097e-02 -1.9394528650850223e-01  -2.5227300525515922e-01 -1.2772692614122302e-02 -2.1237107907786412e-01  -2.7304822160783837e-01 -1.4657883141571957e-02 -2.2676807185980777e-01  -2.9503462627485627e-01 -1.6513071914961059e-02 -2.3402224287627724e-01  -3.1803858441552552e-01 -1.7897797025358968e-02 -2.2898769202516769e-01  -3.4133063091562349e-01 -1.7760315991327061e-02 -2.0329001397188054e-01  -3.6458714465436609e-01 -1.3564187986849996e-02 -1.3962324370019971e-01  -3.8268343633588020e-01 0.0000000000000000e+00 0.0000000000000000e+00  -2.0607028626631532e-01 -6.3363581602233468e-04 -6.5912111717405963e-02  -2.0891889562569912e-01 -1.2071045278848735e-03 -7.2291107813422656e-02  -2.1493329323045063e-01 -2.3915631208977655e-03 -8.5772365486625882e-02  -2.2377210665651331e-01 -3.7994508402829927e-03 -1.0397882085913347e-01  -2.3525888152502164e-01 -5.2898202647614443e-03 -1.2556174268597856e-01  -2.4939118933820068e-01 -6.8364419969443087e-03 -1.4967293915184407e-01  -2.6621218268626068e-01 -8.4636708558701416e-03 -1.7560733578960652e-01  -2.8578444181068102e-01 -1.0219950943802023e-02 -2.0258601157904749e-01  -3.0811622384912329e-01 -1.2161097364138531e-02 -2.2963267702092571e-01  -3.3321489253420833e-01 -1.4339232435482879e-02 -2.5549997696394866e-01  -3.6099163102889748e-01 -1.6775578313851947e-02 -2.7835967912761239e-01  -3.9125859604335550e-01 -1.9404104935106796e-02 -2.9549960778793199e-01  -4.2366120477127062e-01 -2.1959266785863418e-02 -3.0285029586250345e-01  -4.5806263447034334e-01 -2.3759071805237508e-02 -2.9392138301237447e-01  -4.9342855845200989e-01 -2.3260102234805569e-02 -2.5853979496203783e-01  -5.2878555772061475e-01 -1.7183230198980250e-02 -1.7591736414911041e-01  -5.5557023878429601e-01 0.0000000000000000e+00 0.0000000000000000e+00  -2.5910782548046918e-01 -7.2061990183440070e-04 -8.1649175978427205e-02  -2.6262254210669367e-01 -1.2603864181003526e-03 -8.9113820358716386e-02  -2.7004348189074867e-01 -2.4325485078907721e-03 -1.0483009573316812e-01  -2.8101230032549990e-01 -3.8809459121960364e-03 -1.2608022617139270e-01  -2.9533403248394757e-01 -5.4531099429427146e-03 -1.5129206290044139e-01  -3.1302025764285912e-01 -7.1099706514922440e-03 -1.7946797065846393e-01  -3.3412723185865378e-01 -8.8712807956752415e-03 -2.0973566383246908e-01  -3.5874330698013146e-01 -1.0791740843749922e-02 -2.4112960396894653e-01  -3.8691154747940015e-01 -1.2935454362308378e-02 -2.7243529686376927e-01  -4.1868688452855735e-01 -1.5362438330807750e-02 -3.0212813715640741e-01  -4.5403889350698340e-01 -1.8088408490476500e-02 -3.2802400208427329e-01  -4.9283241654298748e-01 -2.1018990641283822e-02 -3.4693712134025179e-01  -5.3472519261143969e-01 -2.3812099985894359e-02 -3.5420787518585883e-01  -5.7958895452571180e-01 -2.5648238971557456e-02 -3.4250591933381719e-01  -6.2605261214845664e-01 -2.4790854180986109e-02 -3.0052689585538955e-01  -6.7244828549035585e-01 -1.7890165604351589e-02 -2.0454101912761979e-01  -7.0710678852361131e-01 0.0000000000000000e+00 0.0000000000000000e+00  -3.0169552792051785e-01 -6.7605349976531943e-04 -9.3880027179668216e-02  -3.0574281858182473e-01 -1.1299170387502973e-03 -1.0214681907698016e-01  -3.1428918714957538e-01 -2.1387269199510221e-03 -1.1950389437981143e-01  -3.2694102272347147e-01 -3.4156119180990068e-03 -1.4296364710147005e-01  -3.4350466315213468e-01 -4.8276346917981456e-03 -1.7079430189984768e-01  -3.6402217444859025e-01 -6.3352931185567465e-03 -2.0188074545416659e-01  -3.8856724190520170e-01 -7.9538529760093610e-03 -2.3524193318319742e-01  -4.1725570149628027e-01 -9.7323278437397801e-03 -2.6976632796934752e-01  -4.5018220752295285e-01 -1.1732674807508942e-02 -3.0407802961606523e-01  -4.8745636400504755e-01 -1.4008982515493205e-02 -3.3646187582298770e-01  -5.2911322863102517e-01 -1.6566570703309320e-02 -3.6448914667532450e-01  -5.7508203718222362e-01 -1.9299265292529826e-02 -3.8469183530566264e-01  -6.2503072770346135e-01 -2.1853370197931751e-02 -3.9202677114889461e-01  -6.7876226427726150e-01 -2.3425203590767905e-02 -3.7864137683724264e-01  -7.3457316143207962e-01 -2.2410717145652601e-02 -3.3235776482004037e-01  -7.9021925506207835e-01 -1.5911552120971471e-02 -2.2689307247966459e-01  -8.3146962093001908e-01 0.0000000000000000e+00 0.0000000000000000e+00  -3.3276665462218646e-01 -5.2521680279222908e-04 -1.0254967564814778e-01  -3.3723460595584132e-01 -8.4905156061601691e-04 -1.1139376487008425e-01  -3.4659983698666319e-01 -1.5823184353138033e-03 -1.2988341279723806e-01  -3.6046915134151625e-01 -2.5256495946361260e-03 -1.5485189245498787e-01  -3.7866103797787065e-01 -3.5821296090580747e-03 -1.8445363677517981e-01  -4.0124184693030335e-01 -4.7213931801404372e-03 -2.1750494849551111e-01  -4.2830137747128094e-01 -5.9536741656406765e-03 -2.5294366602777468e-01  -4.5999007413395615e-01 -7.3158454882432424e-03 -2.8956927570457414e-01  -4.9645572571218038e-01 -8.8544381775171148e-03 -3.2590268044036774e-01  -5.3785434010701738e-01 -1.0610107770832714e-02 -3.6009878246654836e-01  -5.8426237458017360e-01 -1.2581700904572862e-02 -3.8958477385555335e-01  -6.3566181467449134e-01 -1.4673618557417945e-02 -4.1072297113348533e-01  -6.9173377033508865e-01 -1.6599896574449394e-02 -4.1826200145834469e-01  -7.5220059542978146e-01 -1.7725628646805228e-02 -4.0397827040073381e-01  -8.1507063220701881e-01 -1.6834454555766865e-02 -3.5504367333149756e-01  -8.7767219693514964e-01 -1.1826674045034801e-02 -2.4312952811796015e-01  -9.2387954209762269e-01 0.0000000000000000e+00 0.0000000000000000e+00  -3.5172610477717126e-01 -2.8696900562964550e-04 -1.0776266737422099e-01  -3.5642152428104623e-01 -4.5457254427636452e-04 -1.1692719467820589e-01  -3.6628768692586250e-01 -8.3850470167077379e-04 -1.3607611244422924e-01  -3.8089618326112545e-01 -1.3377150732300012e-03 -1.6192175969817035e-01  -4.0007701858114841e-01 -1.9009134471326982e-03 -1.9255398021375289e-01  -4.2390957226625509e-01 -2.5120246048027633e-03 -2.2673858263587424e-01  -4.5250338658711842e-01 -3.1766847794201460e-03 -2.6337917887405760e-01  -4.8603493725046659e-01 -3.9132947731109532e-03 -3.0122085889484634e-01  -5.2468581499886247e-01 -4.7462628095974718e-03 -3.3872389966449140e-01  -5.6863682123356218e-01 -5.6989207238965821e-03 -3.7397443755243859e-01  -6.1799199409801631e-01 -6.7673435802419043e-03 -4.0432020897796522e-01  -6.7277366180824283e-01 -7.8957796790308735e-03 -4.2604301138731870e-01  -7.3268122933498858e-01 -8.9257711978459591e-03 -4.3377740391820119e-01  -7.9737359786157835e-01 -9.5082923991486167e-03 -4.1909172176725518e-01  -8.6464694066586134e-01 -8.9918324399060022e-03 -3.6870839777464209e-01  -9.3154782986136209e-01 -6.2807545201427062e-03 -2.5302625211774210e-01  -9.8078529058003039e-01 0.0000000000000000e+00 0.0000000000000000e+00  -3.5807497440196445e-01 2.3593186497795577e-06 -1.0947834749772133e-01  -3.6286412432632026e-01 1.8104738788748736e-06 -1.1876123952265076e-01  -3.7289713438589500e-01 1.3299340705377769e-06 -1.3812783018745423e-01  -3.8775066857306084e-01 9.8673649093626917e-07 -1.6426218218416658e-01  -4.0726020774460947e-01 9.6329795940417179e-07 -1.9522882633312572e-01  -4.3150994764410955e-01 7.5612399187642822e-07 -2.2978626059834534e-01  -4.6061907580787198e-01 6.9082974469299886e-07 -2.6682196568741584e-01  -4.9477513732382744e-01 1.7553646085741218e-06 -3.0506545432355758e-01  -5.3416465763463861e-01 3.0503447062619589e-06 -3.4295202151447945e-01  -5.7897485805241633e-01 3.9873301076908367e-06 -3.7854659829392723e-01  -6.2932776694007164e-01 5.9605203197374545e-06 -4.0917475141011994e-01  -6.8525942123136274e-01 8.2966767307418211e-06 -4.3109267484225611e-01  -7.4647568461772329e-01 8.5538268823898834e-06 -4.3890799140975412e-01  -8.1261631341954055e-01 9.3649126540234157e-06 -4.2410577036994440e-01  -8.8138894548624414e-01 7.8475873598511754e-06 -3.7326793854545093e-01  -9.4974448608327811e-01 6.0021457793363829e-06 -2.5634721161224527e-01  -1.0000000103761746e+00 0.0000000000000000e+00 0.0000000000000000e+00  -3.5173681691701392e-01 2.9118063054988546e-04 -1.0776174176798212e-01  -3.5643446735837775e-01 4.5751789220062599e-04 -1.1692557362795301e-01  -3.6629979916060007e-01 8.4116676807705559e-04 -1.3607228558379594e-01  -3.8090170978968269e-01 1.3397547446693213e-03 -1.6191368976383025e-01  -4.0007448875981694e-01 1.9029036722123967e-03 -1.9254395886668976e-01  -4.2390048099756122e-01 2.5144414781879724e-03 -2.2673040372217843e-01  -4.5249387512699440e-01 3.1798662996604084e-03 -2.6337702657361550e-01  -4.8603103670447956e-01 3.9181660453330505e-03 -3.0122431279465289e-01  -5.2467973835897364e-01 4.7539588484655660e-03 -3.3872510594869659e-01  -5.6862189135166918e-01 5.7080138193367214e-03 -3.7396528575809240e-01  -6.1797842159362182e-01 6.7795775513762122e-03 -4.0430215374644290e-01  -6.7275912569689422e-01 7.9122667155735078e-03 -4.2602036134471155e-01  -7.3266787315430715e-01 8.9442261295673044e-03 -4.3375869526107508e-01  -7.9736788399213387e-01 9.5270187251319249e-03 -4.1907502651471695e-01  -8.6463365967604688e-01 9.0100199458363738e-03 -3.6869836696378755e-01  -9.3153617724314952e-01 6.2915066483710570e-03 -2.5301828330045656e-01  -9.8078529058003039e-01 0.0000000000000000e+00 0.0000000000000000e+00  -3.3278253549617282e-01 5.3027047950354007e-04 -1.0255069116527801e-01  -3.3725766113380667e-01 8.5180443964340150e-04 -1.1139667497936453e-01  -3.4661822520986180e-01 1.5840127477032967e-03 -1.2988035280842272e-01  -3.6047974924175830e-01 2.5264000831756914e-03 -1.5484524386091908e-01  -3.7866325064056433e-01 3.5825683762001500e-03 -1.8444697620055478e-01  -4.0123737302094353e-01 4.7225712903826286e-03 -2.1750113132730378e-01  -4.2829545772253219e-01 5.9561338674700842e-03 -2.5294612063618255e-01  -4.5998815956752720e-01 7.3199085600389215e-03 -2.8958006544738107e-01  -4.9644935317517092e-01 8.8600996481718857e-03 -3.2590765800666643e-01  -5.3783840131945460e-01 1.0616319753304654e-02 -3.6009049786886682e-01  -5.8424654465496928e-01 1.2589077632038917e-02 -3.8956455917168281e-01  -6.3563779672809761e-01 1.4683842299827219e-02 -4.1069730604508392e-01  -6.9171409827262398e-01 1.6611993684691836e-02 -4.1824114058104972e-01  -7.5218454119242006e-01 1.7738910650496299e-02 -4.0397231909722781e-01  -8.1503072171668445e-01 1.6846710114425581e-02 -3.5503183366500368e-01  -8.7763680250629539e-01 1.1833076057567171e-02 -2.4312090168899295e-01  -9.2387954209762269e-01 0.0000000000000000e+00 0.0000000000000000e+00  -3.0167205558827315e-01 6.7706671375007319e-04 -9.3864130890378455e-02  -3.0574240932596058e-01 1.1308594304211346e-03 -1.0213951840785385e-01  -3.1428143072776216e-01 2.1395589017919755e-03 -1.1949334255149432e-01  -3.2692657809711040e-01 3.4157770010791837e-03 -1.4295037034920108e-01  -3.4348326529731715e-01 4.8278619202827581e-03 -1.7078198720151333e-01  -3.6399556488205032e-01 6.3357587387410834e-03 -2.0186902923950215e-01  -3.8853243823170941e-01 7.9553046497909639e-03 -2.3523099731151989e-01  -4.1721605156669483e-01 9.7353995738641060e-03 -2.6975787525199196e-01  -4.5013568791397884e-01 1.1737002886310428e-02 -3.0406875316361848e-01  -4.8740421326731931e-01 1.4013568286247514e-02 -3.3644491786510855e-01  -5.2906220993839459e-01 1.6573348039191641e-02 -3.6446789357724907e-01  -5.7501436124219207e-01 1.9307490083092731e-02 -3.8466034354707557e-01  -6.2495884209892849e-01 2.1865583462213744e-02 -3.9200138313496563e-01  -6.7866927688452916e-01 2.3437591680860497e-02 -3.7862220835209415e-01  -7.3442781675081437e-01 2.2419365197193581e-02 -3.3233451009927051e-01  -7.9009915980627510e-01 1.5914321235776574e-02 -2.2685717648278006e-01  -8.3146962093001930e-01 0.0000000000000000e+00 0.0000000000000000e+00  -2.5912127433566828e-01 7.2192098168667273e-04 -8.1652059826925999e-02  -2.6266306702395409e-01 1.2611493962551323e-03 -8.9124484015891556e-02  -2.7008498362082706e-01 2.4327269572521890e-03 -1.0483948997060138e-01  -2.8105667385695265e-01 3.8810546344438725e-03 -1.2609333857286439e-01  -2.9537115085117804e-01 5.4530637012819997e-03 -1.5130549035542964e-01  -3.1304816121526780e-01 7.1096926156681093e-03 -1.7947930782868354e-01  -3.3414001429104634e-01 8.8713319540579851e-03 -2.0974019154271140e-01  -3.5874288305404611e-01 1.0792439407463199e-02 -2.4113350294883676e-01  -3.8689865586530447e-01 1.2937522787663944e-02 -2.7244028643102863e-01  -4.1866589999677500e-01 1.5365942561838587e-02 -3.0213778773813993e-01  -4.5402210367493823e-01 1.8094245113544398e-02 -3.2803376709484727e-01  -4.9280369898062798e-01 2.1027027768778787e-02 -3.4694368438640638e-01  -5.3469941049709802e-01 2.3824028151261438e-02 -3.5420272537544634e-01  -5.7951725670944554e-01 2.5657693726811929e-02 -3.4250375501396646e-01  -6.2588155612563057e-01 2.4796244631474802e-02 -3.0050168748513240e-01  -6.7228115428721258e-01 1.7888767780890540e-02 -2.0449141971428553e-01  -7.0710678852361142e-01 0.0000000000000000e+00 0.0000000000000000e+00  -2.0601820495069620e-01 6.3512408946243154e-04 -6.5891880560066673e-02  -2.0891170930308692e-01 1.2077583623675032e-03 -7.2288224943386131e-02  -2.1493051512389394e-01 2.3919639268429431e-03 -8.5775681488743871e-02  -2.2378416300590048e-01 3.7996894245683871e-03 -1.0398564619082210e-01  -2.3527263400145831e-01 5.2897005453120304e-03 -1.2556953587600667e-01  -2.4940133024594718e-01 6.8362581966815404e-03 -1.4967602141786165e-01  -2.6621144385191337e-01 8.4632799084568642e-03 -1.7560337055353586e-01  -2.8577437826957669e-01 1.0220464538449724e-02 -2.0258105404319934e-01  -3.0809768257123366e-01 1.2163401187986051e-02 -2.2963390839306377e-01  -3.3318866303915023e-01 1.4343296200637325e-02 -2.5550633593617772e-01  -3.6096446066143251e-01 1.6782187907163931e-02 -2.7837641753221815e-01  -3.9121544658876389e-01 1.9412375713757146e-02 -2.9550994894864863e-01  -4.2362165629178217e-01 2.1970041350897293e-02 -3.0284841066398316e-01  -4.5796879068538582e-01 2.3768672474996717e-02 -2.9391502920652629e-01  -4.9321798127024208e-01 2.3265949985679681e-02 -2.5851375951220784e-01  -5.2856875575907003e-01 1.7183567281225300e-02 -1.7585948859090933e-01  -5.5557023878429601e-01 0.0000000000000000e+00 0.0000000000000000e+00  -1.4386628857352843e-01 4.5104976303232002e-04 -4.6762613863725350e-02  -1.4595324174613333e-01 9.7930910901890137e-04 -5.1738315092863807e-02  -1.5028331509757853e-01 1.9821515491503469e-03 -6.2243038274496669e-02  -1.5657538883752939e-01 3.1066913217185272e-03 -7.6361773649076675e-02  -1.6467607310804777e-01 4.2636921706786591e-03 -9.3023227035298570e-02  -1.7460058156630667e-01 5.4479053188111418e-03 -1.1160266825774232e-01  -1.8638200999310045e-01 6.6812118214305081e-03 -1.3159500668494836e-01  -2.0006212993154776e-01 7.9986572638802121e-03 -1.5248052382572577e-01  -2.1562878288186391e-01 9.4349347332329820e-03 -1.7357527631129352e-01  -2.3306502685695740e-01 1.1023971124803985e-02 -1.9400437856642522e-01  -2.5227114613223695e-01 1.2781505525542898e-02 -2.1243685997010883e-01  -2.7303264181488451e-01 1.4667710206515992e-02 -2.2683315228649037e-01  -2.9502396236891942e-01 1.6523965795320589e-02 -2.3406412973565885e-01  -3.1797710693390968e-01 1.7909109012459963e-02 -2.2901173486341880e-01  -3.4115507911101411e-01 1.7770705302501872e-02 -2.0328865168192081e-01  -3.6438680030006843e-01 1.3569927368031420e-02 -1.3958568203085364e-01  -3.8268343633588031e-01 0.0000000000000000e+00 0.0000000000000000e+00  -7.4260779069725960e-02 2.0345265604498775e-04 -2.4494027495882319e-02  -7.5439483441169269e-02 5.4113673539480463e-04 -2.7548452846195455e-02  -7.7784302358418128e-02 1.0844147744825095e-03 -3.3951116943868653e-02  -8.1105077428251321e-02 1.6547436475245736e-03 -4.2416271892300558e-02  -8.5332800624539656e-02 2.2282423559425494e-03 -5.2302378184157748e-02  -9.0487742976711485e-02 2.8110068985883110e-03 -6.3261675684139831e-02  -9.6595060606905786e-02 3.4136603148115460e-03 -7.5049682209432825e-02  -1.0367966676823262e-01 4.0513115110516204e-03 -8.7407884923064560e-02  -1.1173209058352397e-01 4.7349164435628449e-03 -1.0000981213042288e-01  -1.2073172241084382e-01 5.4769364978300566e-03 -1.1240836784139518e-01  -1.3059816006951266e-01 6.2793783020915822e-03 -1.2391415570713701e-01  -1.4116782589631188e-01 7.1242542965993345e-03 -1.3341630705573357e-01  -1.5220705916901556e-01 7.9486247329507310e-03 -1.3916264653349028e-01  -1.6351272872680372e-01 8.5780024678959819e-03 -1.3818131868993999e-01  -1.7467018706575596e-01 8.5990493059103744e-03 -1.2534266333267752e-01  -1.8580802297323148e-01 6.8348558297462760e-03 -8.9264307164965348e-02  -1.9509032404041998e-01 0.0000000000000000e+00 0.0000000000000000e+00  0.0000000000000000e+00 0.0000000000000000e+00 0.0000000000000000e+00  0.0000000000000000e+00 0.0000000000000000e+00 0.0000000000000000e+00  0.0000000000000000e+00 0.0000000000000000e+00 0.0000000000000000e+00  0.0000000000000000e+00 0.000000